72
 energy: -95.313553930951 gnorm: 0.000313506267 xtb: 6.4.1 (conda-forge)
C        -3.53375378407425    0.76316407673193    0.95109454648590
C        -2.36260883313574    0.51037009681296    0.25914738081375
C        -2.41027698181705   -0.08418189330175   -0.98855798920861
C        -3.62992096140546   -0.42693296728653   -1.54417330153699
C        -4.80208157986070   -0.17604219565125   -0.85250730607996
C        -4.75404074438452    0.41964474327332    0.39584502536209
H        -1.49405453597634   -0.28246986959599   -1.52256524571593
H         0.42558773820862    1.57463618154682   -0.84524485902652
C         1.08025022061819    0.71634968593411   -0.85451656758942
C         1.19796784923373   -0.04289958131148   -2.00632192685626
C         2.03894620890024   -1.14142105542211   -2.02980552996740
C         2.76335018061887   -1.48239036502324   -0.89981155438401
C         2.64835537202808   -0.72217690646400    0.25091485017297
C         1.80500761391789    0.37626745668047    0.27366752290670
H         2.13654262384846   -1.73462053842043   -2.92764226062323
H         0.37213578057132   -1.86827851448266    1.66054241589361
C        -0.57350458542271   -2.24271806055851    1.29711390427181
C        -1.71166396086239   -2.13903696037702    2.07741541343585
C        -2.92224044525683   -2.61528134221016    1.60419762615451
C        -2.99373685065008   -3.19587919958078    0.35046515697984
C        -1.85504257662186   -3.29945307920267   -0.42991091418240
C        -0.64484927715279   -2.82246118879627    0.04249972959842
H         1.71506901545785    0.96993330255736    1.17236541758282
H        -0.02167402158189    2.87549385663146   -3.63268422023402
C        -0.89001381422149    3.00796737176425   -3.00343614744889
C        -2.12693425657679    2.53327617939384   -3.40326337120457
C        -3.23331416596341    2.71007644267136   -2.58962736401170
C        -3.10103908146888    3.35459234864872   -1.37252588915749
C        -1.86313243334894    3.82685404247618   -0.97053569867598
C        -0.75831152997368    3.65757714717748   -1.78731015493621
H         3.42096819506436   -2.33879674562963   -0.92002889942797
C         5.07076535544920   -1.29068055352848   -4.14988943100018
C         4.92169413814198   -2.62422501873893   -3.80885988366324
C         5.46899534678496   -3.10227114578925   -2.63044249813082
C         6.15993459511353   -2.24492393204560   -1.79040300896504
C         6.30558879098205   -0.91107840540715   -2.13067389776183
C         5.76511009537880   -0.43426552635617   -3.31282643728597
H         3.21822831095714   -0.98704348386989    1.13047067476851
H         4.05206457981595    1.24835930137741   -1.70833033958745
C         3.64023709841167    2.16016671900715   -2.11463080810779
C         3.22052245512355    2.19905767108327   -3.43330345390268
C         3.52514123711935    3.28771741515555   -1.32063414764652
C         2.99315970658785    4.45406082509963   -1.84475092509994
C         2.57678579447823    4.49383921954703   -3.16466068867915
C         2.69049581208025    3.36489175397733   -3.95880759012090
H        -3.49631922872898    1.22700163768149    1.92640307874743
H        -1.40895593006125    0.77139763205081    0.69204964610918
H        -3.66707342070158   -0.89163323232549   -2.51889303728225
H        -5.75510087038141   -0.44464341563925   -1.28596628485073
H        -5.66924461505775    0.61527786641386    0.93660477709309
H         0.63456654905836    0.23117834489693   -2.88668229851319
H        -1.65664438114477   -1.68529707848148    3.05648813390146
H        -3.81134186030158   -2.53154807808018    2.21195524542331
H        -3.93874150652291   -3.56600822314738   -0.01958874674443
H        -1.91180760905743   -3.75173113441353   -1.40953868747794
H         0.24471775626063   -2.89509440975809   -0.56598928906540
H        -2.23126118436726    2.02686873729101   -4.35217421002233
H        -4.19936196189025    2.34210846666231   -2.90210504248514
H        -3.96316363428975    3.48569553420412   -0.73549962707659
H        -1.76026497681785    4.32911757733548   -0.01933164024798
H         0.20948560647465    4.03158682412040   -1.48380440828746
H         4.64880985860751   -0.91994262215038   -5.07322908646595
H         4.38157228324713   -3.29343966332050   -4.46343168642860
H         5.35651561064782   -4.14432356413646   -2.36631421301020
H         6.58514891995373   -2.61744083189917   -0.86939580379222
H         6.84421224121921   -0.24169923148320   -1.47551822265591
H         5.88666052074319    0.60504315597036   -3.58112981952268
H         3.30547281121871    1.31483612633752   -4.04754447371605
H         3.84910090863354    3.25629377916406   -0.29048333984659
H         2.90367326202496    5.33473442926383   -1.22437898591588
H         2.15980018742306    5.40296009410697   -3.57362479706099
H         2.36789496964664    3.39737396953105   -4.99014453456805
